<?xml version="1.0" encoding="UTF-8"?>

<!-- generated on 2021-06-03 14:30:35 by Eclipse SUMO sumo Version 1.9.1
<configuration xmlns:xsi="http://www.w3.org/2001/XMLSchema-instance" xsi:noNamespaceSchemaLocation="http://sumo.dlr.de/xsd/sumoConfiguration.xsd">

    <input>
        <net-file value="C:\Users\Matt\Sumo\2021-06-03-14-30-21\osm.net.xml"/>
        <route-files value="C:\Users\Matt\Sumo\2021-06-03-14-30-21\trips.trips.xml"/>
        <additional-files value="C:\Users\Matt\Sumo\2021-06-03-14-30-21\osm_stops.add.xml"/>
    </input>

    <output>
        <vehroute-output value="C:\Users\Matt\Sumo\2021-06-03-14-30-21\vehroutes.xml"/>
        <stop-output value="C:\Users\Matt\Sumo\2021-06-03-14-30-21\stopinfos.xml"/>
    </output>

    <time>
        <begin value="0"/>
    </time>

    <processing>
        <ignore-route-errors value="true"/>
    </processing>

    <routing>
        <device.rerouting.adaptation-interval value="0"/>
    </routing>

    <report>
        <error-log value="C:\Users\Matt\Sumo\2021-06-03-14-30-21\trips.trips.xml.errorlog"/>
        <no-step-log value="true"/>
    </report>

</configuration>
-->

<routes xmlns:xsi="http://www.w3.org/2001/XMLSchema-instance" xsi:noNamespaceSchemaLocation="http://sumo.dlr.de/xsd/routes_file.xsd">
    <vehicle id="4_bus_302_Health_Sciences:0" type="pt_bus" depart="406.00" departLane="0" arrival="631.00">
        <route edges="474072165#0 474072165#1 474072165#2 906700215#0 906700215#1 906700215#2 253130291#1 253130291#2 253130291#6 748906477#1 748906477#2 748906477#3 752304639#1 906700217 752304640#1 752304640#2 906858877#0"/>
        <stop busStop="8406891927" duration="30.00"/>
    </vehicle>

    <vehicle id="0_bus_301_Gold:0" type="pt_bus" depart="15.00" departLane="0" arrival="653.00">
        <route edges="906700217 752304640#1 752304640#2 906858877#0 -253130291#6 -253130291#2 -253130291#1 575389180#1 575389180#2 575389180#3 906700214 252997112#0 252997112#1 252995527#0 252995527#1 252995537#0 252995537#1 906700213#1 906700212 -252995527#1 -252995527#0 -575389178#1 16729391 -575389180#3 -575389180#2 -575389180#1 253130291#1 253130291#2 253130291#6 748906477#1 748906477#2 748906477#3 906858876#0 906858876#1 575390995#0 575390995#1 51724105#0 51724105#1 51724105#3 51724105#4 253130296#0 253130296#1 -171488544#3 -171488544#2 -171488544#1 -171488544#0 -265353020#1 -265353020#0 -906700197#0 906700209#2 906700197#1 265353020#1 906862822 171488544#1 171488544#2 171488544#3 253130297#0 253130297#1 253130293 908942267#1 253130299#0 253130299#1 -575390995#1 -575390995#0 575390994 752304639#1 906700217"/>
        <stop busStop="8406891927" duration="30.00"/>
        <stop busStop="8420611597" duration="30.00"/>
        <stop busStop="-2591075035" duration="30.00"/>
        <stop busStop="-8419038653" duration="30.00"/>
    </vehicle>

    <vehicle id="2_bus_610_Minges_Park_and_Ride:0" type="pt_bus" depart="165.00" departLane="0" arrival="738.00">
        <route edges="906839018#1 252994608#1 908942267#1 253130299#0 -16727655#4 906427583 -16722930#3 -16722930#2 -16722930#1 906700208#5 906700208#7 906425994 906700207#0 906700207#1 -906700206#5 -906700206#4 -906700206#3 -906700206#2 -906700206#1 -906700206#0 -16722369#13 -16722369#12 -16722369#11 -16722369#10 -16722369#9 -16722369#8 -16722369#7 -16722369#6 -16722369#4 -16722369#3 -16722369#2 -16722369#1 -16722369#0 -906700200#9 -906700200#8 -906700200#7 -906700200#6 -906700200#5 -906700200#4 -906700200#3 -906700200#2 -906700200#1 906700199#0 906700199#1 906700199#2 -906839017#2 846419886#1 846419886#2 846419890#1 846419890#2 846419890#3 846419890#5 846419890#6 846419890#7 904605189 321760061#0 -314153602#3 -314153602#2 -314153602#1 -253130294 -748906478#1 -748906478#0 252994607#0 252994607#1 906839018#0 906839018#1"/>
        <stop busStop="8419504676" duration="30.00"/>
        <stop busStop="-8420611595" duration="30.00"/>
        <stop busStop="-8420611596" duration="30.00"/>
        <stop busStop="8420709998" duration="30.00"/>
    </vehicle>

    <vehicle id="1_bus_Gold:0" type="pt_bus" depart="133.00" departLane="0" arrival="855.00">
        <route edges="906700217 752304640#1 752304640#2 906858877#0 -253130291#6 -253130291#2 -253130291#1 575389180#1 575389180#2 575389180#3 906700214 252997112#0 252997112#1 252995527#0 252995527#1 252995537#0 252995537#1 906700213#1 906700212 -252995527#1 -252995527#0 -575389178#1 16729391 -575389180#3 -575389180#2 -575389180#1 253130291#1 253130291#2 253130291#6 748906477#1 748906477#2 748906477#3 906858876#0 906858876#1 575390995#0 575390995#1 51724105#0 51724105#1 51724105#3 51724105#4 253130296#0 253130296#1 -171488544#3 -171488544#2 -171488544#1 -171488544#0 -265353020#1 -265353020#0 -906700197#0 -906700209#1 -906700209#0 -16729794#5 -16729794#4 -16729794#3 -16729794#2 -16729794#1 906700208#0 906700208#1 906700208#2 906700208#3 906700208#4 906700208#5 906700208#7 906425994 906700207#0 906700207#1 -906700206#5 -906700206#4 -906700206#3 -906700206#2 906700206#2 906700206#3 906700206#4 906700206#5 171004421#0 171004421#1 171004421#2 16721699#1 16721699#2 16721699#3 16721699#4 748906477#1 748906477#2 748906477#3 752304639#1 906700217"/>
        <stop busStop="8406891927" duration="30.00"/>
        <stop busStop="8420611597" duration="30.00"/>
        <stop busStop="-2591075035" duration="30.00"/>
        <stop busStop="-8419038653" duration="30.00"/>
        <stop busStop="-7725576826" duration="30.00"/>
    </vehicle>

    <vehicle id="3_bus_305_Uptown:0" type="pt_bus" depart="383.00" departLane="0" arrival="960.00">
        <route edges="16722302#1 906844744 361221974#0 361221974#1 361221974#2 361221974#3 361221974#4 361221974#5 361221974#6 361221974#7 361221974#8 361221974#9 911258378#0 911258378#1 911258378#2 911258378#3 911258378#4 911258378#5 905646840#0 904622815#1 16723263 904622819 16724159#0 637060474#2 637060474#4 51724096#0 51724096#1 51724096#3 51724096#4 51724096#5 51724096#6 -906844749#0 -905646840#0 -911258378#5 -911258378#4 -911258378#3 252994611#1 252994611#2 252994611#3 252994611#4 252994611#5 252994611#6 252994611#7 252994601#0 252994601#1 389318890#4 -361221974#5 -361221974#4 -361221974#3 -361221974#2 -361221974#1 -361221974#0 16722302#1"/>
        <stop busStop="8420750216" duration="30.00"/>
        <stop busStop="8420750215" duration="30.00"/>
        <stop busStop="8420750213" duration="30.00"/>
        <stop busStop="8420750211" duration="30.00"/>
        <stop busStop="8420750210" duration="30.00"/>
        <stop busStop="8420750209" duration="30.00"/>
    </vehicle>

    <vehicle id="5_bus_304_Campus_Circulator:0" type="pt_bus" depart="441.00" departLane="0" arrival="1613.00">
        <route edges="575389180#1 -575389180#1 253130291#1 253130291#2 253130291#6 748906477#1 748906477#2 748906477#3 752304639#1 906700217 752304640#1 752304640#2 906858877#0 -253130291#6 -253130291#2 -253130291#1 575389180#1 575389180#2 575389180#3 906700214 252997112#0 252997112#1 252995527#0 252995527#1 252995537#0 252995537#1 906700213#1 906700212 -252995527#1 -252995527#0 -575389178#1 575389179 906856904 51724100#0 51724100#1 51724100#2 252997115#0 252997115#1 -911258378#5 -911258378#4 -911258378#3 -911258378#2 -911258378#1 -911258378#0 -361221974#9 -361221974#8 -361221974#7 -361221974#6 -361221974#5 -361221974#4 -361221974#3 -361221974#2 -361221974#1 -361221974#0 16722302#1 -906844750#2 -16722864#3 -16722864#2 -16722864#1 -253130294 -748906478#1 -748906478#0 -171488544#3 -171488544#2 -171488544#1 -171488544#0 253129289#1 906839018#1 252994608#1 51724105#3 51724105#4 253130296#0 253130296#1 -171488544#3 171488544#3"/>
        <stop busStop="8406891927" duration="30.00"/>
        <stop busStop="8420611597" duration="30.00"/>
        <stop busStop="3927930175" duration="30.00"/>
        <stop busStop="-3928016652" duration="30.00"/>
        <stop busStop="-8420750212" duration="30.00"/>
        <stop busStop="-8420750214" duration="30.00"/>
        <stop busStop="8420750216" duration="30.00"/>
        <stop busStop="8420835949" duration="30.00"/>
        <stop busStop="8419504676" duration="30.00"/>
    </vehicle>

</routes>
